3
# CELL(abcABC):    4.41863     4.41863     4.41863    90.00000    90.00000    90.00000  Step:           0  Bead:       0 positions{angstrom}  cell{angstrom}
      He  5.29177e-01  1.05835e+00  1.58753e+00
      He -5.29177e-01 -1.05835e+00 -1.58753e+00
      He  0.00000e+00  0.00000e+00  0.00000e+00
